[Molden Format]
[Title]
[Atoms] AU
N      1     7 -0.56542039918000E+01  0.26549535610000E+00 -0.35296340130000E+00
C      2     6 -0.29734242996000E+01  0.99717532730000E+00 -0.58084655450000E+00
C      3     6 -0.13352826065000E+01 -0.46404443530000E+00  0.13219383943000E+01
O      4     8  0.12868514349000E+01  0.35457110710000E+00  0.12095090460000E+01
C      5     6  0.29029581668000E+01 -0.75602893100000E+00 -0.53671546720000E+00
C      6     6  0.55527389453000E+01  0.30427114320000E+00 -0.34111820910000E+00
O      7     8  0.23283800757000E+01 -0.23939705833000E+01 -0.20857362449000E+01
H      8     1 -0.63048662276000E+01  0.56622672190000E+00  0.14500299578000E+01
H      9     1 -0.58801225983000E+01 -0.16333334612000E+01 -0.68465245450000E+00
H     10     1 -0.23077938016000E+01  0.63663291830000E+00 -0.25320380479000E+01
H     11     1 -0.27746666324000E+01  0.30569419733000E+01 -0.27563839600000E+00
H     12     1 -0.20438806569000E+01 -0.12713137260000E+00  0.32602689410000E+01
H     13     1 -0.15062106131000E+01 -0.25327547286000E+01  0.10269304833000E+01
H     14     1  0.63437228156000E+01 -0.35548271900000E-01  0.15582014213000E+01
H     15     1  0.55529380865000E+01  0.23587041131000E+01 -0.69831813190000E+00
H     16     1  0.68128618916000E+01 -0.59720686680000E+00 -0.17388513478000E+01
[GTO]
           1 0
 s           4   1.00000000000000     
   63.5940244669410      -0.192343884147216     
   10.9514172315237      -0.234781079249537     
  0.879993102573770       0.375937539017009     
  0.335387152965211       0.149828892718628     
 p           4   1.00000000000000     
   7.29650404814951       0.976586663156674     
   1.89187454507126       0.903722267303458     
  0.666944321108241       0.474049584615364     
  0.265522026741309       7.151606771501186E-002
 
           2 0
 s           4   1.00000000000000     
   51.0493630955799      -0.163120632101274     
   8.79112274068875      -0.199110245810007     
  0.706404222589298       0.318820477536558     
  0.269228134134116       0.127065041842404     
 p           4   1.00000000000000     
   5.82636561408000       0.737164515452096     
   1.51068960187200       0.682163716148503     
  0.532564832880000       0.357830539292537     
  0.212023236906000       5.398303027584788E-002
 
           3 0
 s           4   1.00000000000000     
   51.0493630955799      -0.163120632101274     
   8.79112274068875      -0.199110245810007     
  0.706404222589298       0.318820477536558     
  0.269228134134116       0.127065041842404     
 p           4   1.00000000000000     
   5.82636561408000       0.737164515452096     
   1.51068960187200       0.682163716148503     
  0.532564832880000       0.357830539292537     
  0.212023236906000       5.398303027584788E-002
 
           4 0
 s           4   1.00000000000000     
   69.1379619061966      -0.204787563700778     
   11.9061291327073      -0.249970231368273     
  0.956708277443407       0.400258802406396     
  0.364625204960737       0.159522066676936     
 p           4   1.00000000000000     
   8.21241932577816        1.13215567991868     
   2.12935769970981        1.04768407822548     
  0.750664482023609       0.549565082171590     
  0.298852465432831       8.290848659276662E-002
 
           5 0
 s           4   1.00000000000000     
   51.0493630955799      -0.163120632101274     
   8.79112274068875      -0.199110245810007     
  0.706404222589298       0.318820477536558     
  0.269228134134116       0.127065041842404     
 p           4   1.00000000000000     
   5.82636561408000       0.737164515452096     
   1.51068960187200       0.682163716148503     
  0.532564832880000       0.357830539292537     
  0.212023236906000       5.398303027584788E-002
 
           6 0
 s           4   1.00000000000000     
   51.0493630955799      -0.163120632101274     
   8.79112274068875      -0.199110245810007     
  0.706404222589298       0.318820477536558     
  0.269228134134116       0.127065041842404     
 p           4   1.00000000000000     
   5.82636561408000       0.737164515452096     
   1.51068960187200       0.682163716148503     
  0.532564832880000       0.357830539292537     
  0.212023236906000       5.398303027584788E-002
 
           7 0
 s           4   1.00000000000000     
   69.1379619061966      -0.204787563700778     
   11.9061291327073      -0.249970231368273     
  0.956708277443407       0.400258802406396     
  0.364625204960737       0.159522066676936     
 p           4   1.00000000000000     
   8.21241932577816        1.13215567991868     
   2.12935769970981        1.04768407822548     
  0.750664482023609       0.549565082171590     
  0.298852465432831       8.290848659276662E-002
 
           8 0
 s           3   1.00000000000000     
   3.37022769753360       0.273591105889083     
  0.613891182214980       0.264605406538605     
  0.166142911484160       8.246594753408232E-002
 
           9 0
 s           3   1.00000000000000     
   3.37022769753360       0.273591105889083     
  0.613891182214980       0.264605406538605     
  0.166142911484160       8.246594753408232E-002
 
          10 0
 s           3   1.00000000000000     
   3.37022769753360       0.273591105889083     
  0.613891182214980       0.264605406538605     
  0.166142911484160       8.246594753408232E-002
 
          11 0
 s           3   1.00000000000000     
   3.37022769753360       0.273591105889083     
  0.613891182214980       0.264605406538605     
  0.166142911484160       8.246594753408232E-002
 
          12 0
 s           3   1.00000000000000     
   3.37022769753360       0.273591105889083     
  0.613891182214980       0.264605406538605     
  0.166142911484160       8.246594753408232E-002
 
          13 0
 s           3   1.00000000000000     
   3.37022769753360       0.273591105889083     
  0.613891182214980       0.264605406538605     
  0.166142911484160       8.246594753408232E-002
 
          14 0
 s           3   1.00000000000000     
   3.37022769753360       0.273591105889083     
  0.613891182214980       0.264605406538605     
  0.166142911484160       8.246594753408232E-002
 
          15 0
 s           3   1.00000000000000     
   3.37022769753360       0.273591105889083     
  0.613891182214980       0.264605406538605     
  0.166142911484160       8.246594753408232E-002
 
          16 0
 s           3   1.00000000000000     
   3.37022769753360       0.273591105889083     
  0.613891182214980       0.264605406538605     
  0.166142911484160       8.246594753408232E-002
 
[MO]
Sym=     1a
Ene=  -0.734657291529759     
Spin= Alpha
Occup=     2.00000000
           1  2.112239089290035E-003
           2  3.451894992343140E-004
           3  9.975124355752762E-005
           4  1.596514749870479E-004
           5 -1.225917975128964E-002
           6 -1.697118556788279E-002
           7  4.565136715193810E-003
           8 -6.933450082690982E-003
           9 -0.115831444643198     
          10 -0.114168956446412     
          11 -2.671714956862781E-002
          12  1.621765974670126E-002
          13 -0.694889914245679     
          14 -5.710994670862194E-002
          15  6.352147684612801E-002
          16  8.415677521807408E-002
          17 -0.305715589213815     
          18  0.130953019882705     
          19 -3.720332081786198E-002
          20 -8.629319239020768E-002
          21 -3.552585543839065E-002
          22  4.286387034065278E-002
          23  8.831226707717424E-003
          24 -5.753479854558422E-003
          25 -0.142863269174345     
          26  1.008209537276478E-002
          27 -6.915787471475492E-002
          28 -7.781204189000837E-002
          29  1.399593035496278E-004
          30  5.396767247340299E-005
          31 -1.617249891072901E-003
          32 -5.325729967661977E-004
          33 -2.527624059833175E-003
          34 -7.608032593844566E-003
          35 -2.973612143720335E-003
          36 -2.913495522967917E-003
          37 -9.472182889043224E-004
Sym=     2a
Ene=  -0.712428101024289     
Spin= Alpha
Occup=     2.00000000
           1  6.756162892013505E-004
           2 -7.567569639864645E-004
           3 -2.448275797863974E-004
           4 -5.423029319102608E-004
           5 -1.090635582069105E-002
           6 -1.011969642951312E-002
           7  1.658665156958842E-003
           8 -8.146727743063811E-003
           9 -7.571218690030967E-002
          10 -5.469380517482218E-002
          11 -3.172186853653240E-002
          12 -1.081332384415595E-002
          13 -0.313599283979193     
          14  3.878382192031099E-002
          15 -5.031161440090540E-002
          16 -6.865846300953796E-002
          17  0.292357132725756     
          18 -1.094499608240203E-002
          19 -0.185930009774760     
          20 -0.194166368748928     
          21  4.014004894943718E-002
          22 -3.275747818165158E-002
          23 -2.903517729069464E-002
          24 -1.936244621941631E-002
          25  0.599217440127331     
          26  5.398379741382436E-002
          27  0.127603423075476     
          28  0.118543562007245     
          29 -1.994992552233039E-004
          30  1.415123612926579E-004
          31 -4.805674747521820E-004
          32 -2.501752332891328E-003
          33 -1.220087528744901E-002
          34 -4.282954567399306E-003
          35  3.092453827338183E-003
          36  3.089440469004148E-003
          37  6.948303381981732E-003
Sym=     3a
Ene=  -0.672926034533165     
Spin= Alpha
Occup=     2.00000000
           1  4.136157474684221E-002
           2  4.267687021130317E-002
           3  1.690636055067204E-003
           4  9.743685961545036E-003
           5  0.154762617459658     
           6  4.690123843728223E-002
           7 -3.661018899475953E-002
           8  5.976119085464481E-002
           9  0.376237151464687     
          10  8.546959418947615E-002
          11  7.370996059254860E-002
          12 -1.113010910987783E-003
          13  4.962826902136019E-002
          14 -0.431264398566210     
          15 -7.955854836118020E-003
          16  0.131778502152079     
          17 -0.223169854566991     
          18 -6.712250923266005E-002
          19 -0.152158161768633     
          20 -0.141880437248944     
          21 -0.159933731292126     
          22  8.315929981151671E-002
          23  1.059824103027698E-002
          24 -1.859270459792730E-002
          25  0.220576082144699     
          26 -2.792433412365513E-002
          27 -3.217670286426079E-002
          28 -2.508932025196327E-002
          29  1.142807783794919E-002
          30  9.363635059451090E-003
          31  3.069737904211381E-002
          32  3.582774173913818E-002
          33  0.102144297520486     
          34  8.091060871554664E-002
          35 -4.115303769778715E-002
          36 -4.074834500617870E-002
          37 -2.443043483769490E-002
Sym=     4a
Ene=  -0.642005626340034     
Spin= Alpha
Occup=     2.00000000
           1  0.303300033632020     
           2  0.179158235460473     
           3  1.328960883335192E-002
           4  2.497849901042645E-002
           5  0.417314225637556     
           6 -7.781853819145383E-002
           7 -6.778418405805266E-002
           8  5.748675476787050E-002
           9  0.159297272221448     
          10 -0.179773343614432     
          11  2.419010448636228E-002
          12 -8.835737443246947E-002
          13 -0.124180156089170     
          14  8.593811079828687E-002
          15  7.400716538316690E-003
          16 -0.107533729990146     
          17  0.145017179422057     
          18  9.702900003147814E-002
          19  8.530332416766256E-002
          20  2.546423861619743E-002
          21  0.191405250615003     
          22 -5.355426549353196E-002
          23 -1.368716750399212E-002
          24 -1.068839003295224E-003
          25 -0.153057566040956     
          26  4.713642125757853E-002
          27  5.094232091442822E-002
          28  2.272439240533815E-002
          29  7.490857170706171E-002
          30  7.247551327847723E-002
          31  9.933599389159854E-002
          32  0.100224121945569     
          33  5.538613677115202E-002
          34  6.090389253171550E-002
          35  5.372874813031241E-002
          36  5.665980079804634E-002
          37  4.960911177156795E-002
Sym=     5a
Ene=  -0.623758814189730     
Spin= Alpha
Occup=     2.00000000
           1 -0.177073152337720     
           2 -7.205532832958192E-002
           3 -3.946662063466166E-003
           4 -1.669664544957362E-003
           5 -0.130184902161132     
           6  8.493734515468279E-002
           7  1.433322540082814E-002
           8  3.129666263120168E-002
           9  0.160044234716100     
          10  7.465778940255356E-002
          11  4.172354694163225E-002
          12  9.451950669937133E-002
          13  4.461210899616073E-002
          14 -0.178952714595460     
          15  8.128868427591861E-002
          16  0.200382393461183     
          17  5.163475138484094E-002
          18  0.312389014820033     
          19  4.604051922186430E-003
          20 -8.207114167436443E-002
          21  0.422612847343338     
          22 -2.132785906588418E-002
          23 -3.770613186736298E-002
          24 -2.734887245376295E-002
          25 -3.767079668258390E-002
          26  0.170520645206411     
          27  1.602016605310501E-002
          28 -3.048167360420819E-002
          29 -4.102158438163103E-002
          30 -4.706108633285913E-002
          31 -4.650461807955571E-002
          32 -2.762480116169211E-002
          33  8.843084410879086E-002
          34  2.312721070728704E-002
          35  0.134296159550591     
          36  0.131122867667294     
          37  0.152765239122079     
Sym=     6a
Ene=  -0.602076004941589     
Spin= Alpha
Occup=     2.00000000
           1 -0.285804129791419     
           2 -4.423499198861230E-002
           3 -1.607217946033880E-002
           4 -2.121498323566240E-002
           5 -6.075935019935919E-002
           6  0.153453903911808     
           7 -6.131306694958304E-002
           8  3.192921996211054E-002
           9  0.267652568813686     
          10 -4.887185723665809E-002
          11 -0.156295803742164     
          12 -6.589204281842509E-002
          13 -0.343437158214965     
          14 -3.447428705526738E-002
          15 -0.337086881069696     
          16 -0.273773386515258     
          17  0.165481856567620     
          18 -0.106157659551535     
          19 -4.499189877148400E-003
          20  7.580867156624854E-002
          21 -2.156734450062843E-002
          22 -2.455480372059701E-002
          23 -1.165055521735337E-002
          24  6.997527282748055E-003
          25 -0.331386065451522     
          26 -4.314981226223095E-002
          27  0.124997111680722     
          28  0.176020828723905     
          29 -9.359059819321359E-002
          30 -7.231137805435529E-002
          31  4.602071917115712E-004
          32 -4.151875812289839E-002
          33  7.282864008424965E-002
          34  0.197585643825078     
          35 -8.888571477615473E-003
          36 -1.553999575599393E-002
          37 -1.641004034955204E-002
Sym=     7a
Ene=  -0.592643905699275     
Spin= Alpha
Occup=     2.00000000
           1  0.335845577351271     
           2 -6.479921614154177E-002
           3 -9.514089690517964E-002
           4  8.637831042699193E-002
           5 -0.237430367746261     
           6 -0.163968431127909     
           7 -8.530212016890429E-002
           8  4.383100661472161E-002
           9  7.311874890727395E-002
          10  1.818154390545014E-002
          11 -0.187081690707456     
          12  0.172542788063411     
          13 -1.308027806800805E-002
          14  7.758187511050324E-002
          15 -0.263887826890906     
          16  0.217102000536849     
          17  1.404099156594236E-002
          18  4.332594786544525E-002
          19 -0.155876300790377     
          20  0.151359922945104     
          21 -3.795842788708061E-003
          22  1.111943616144035E-002
          23 -4.419321439468905E-002
          24  4.103296596099337E-002
          25 -2.270945612957386E-002
          26  2.894053485960139E-002
          27 -8.928366724638312E-002
          28  0.107405745012263     
          29  0.163696751882624     
          30  0.161213121576728     
          31 -0.136846848506135     
          32 -0.145604837570686     
          33  0.107290369847151     
          34  0.125136428845708     
          35  2.745991258526451E-002
          36 -3.150730129220287E-002
          37 -2.436074384423365E-003
Sym=     8a
Ene=  -0.569909312879099     
Spin= Alpha
Occup=     2.00000000
           1 -0.211881757483461     
           2  0.155174941758329     
           3  0.127685068190848     
           4 -9.808457935622310E-002
           5  0.209197570663917     
           6 -2.796674403600231E-002
           7  6.871267766629642E-002
           8 -6.211095602942891E-002
           9 -1.276300002377751E-002
          10 -7.494346432037173E-002
          11 -5.953164167334885E-002
          12  6.335611054518814E-002
          13  4.859957338400255E-002
          14  0.238249380193423     
          15 -0.181301851711618     
          16  0.305854565048105     
          17 -5.396500817756416E-002
          18  9.193303988782951E-002
          19 -0.220971793988860     
          20  0.290737503580831     
          21 -7.612972214271112E-003
          22  2.675421743352921E-002
          23 -7.009001442911370E-002
          24  0.116535113857827     
          25  0.181595996807787     
          26  1.700871660884669E-002
          27 -0.312050517316032     
          28  7.938406969201413E-002
          29 -0.149781513640681     
          30 -0.150233410475695     
          31  9.894116334489854E-002
          32  0.116693802145986     
          33  4.076710471824632E-002
          34  3.451662962040015E-002
          35  7.826445577142889E-002
          36 -5.922598930390648E-002
          37 -2.075578432532555E-002
Sym=     9a
Ene=  -0.564206291142367     
Spin= Alpha
Occup=     2.00000000
           1 -8.994761440240223E-003
           2  1.805677734451745E-002
           3  6.945592270673270E-002
           4  2.103992553190881E-002
           5  3.792699721995188E-002
           6 -2.971732903256410E-002
           7  8.672771478609070E-002
           8  3.421468195712163E-002
           9 -1.971261836410107E-002
          10  9.168945416567200E-003
          11  0.115430905878254     
          12  0.112306566934828     
          13  4.347752300488871E-002
          14 -3.273902957194269E-002
          15  7.198763843952190E-002
          16  0.179452189053196     
          17  0.209323061401351     
          18  0.198393001245827     
          19 -0.107728248729637     
          20 -8.192344715650751E-002
          21 -0.230590334708885     
          22 -0.205901041440443     
          23 -0.164997457196142     
          24 -6.410378247968464E-002
          25 -0.360141339884099     
          26  0.310328270872621     
          27  0.237307366012223     
          28  0.224168071994655     
          29  1.407104659621870E-002
          30 -5.261461867154102E-002
          31 -2.403624466032161E-002
          32  6.985485373491085E-002
          33  6.816655176209606E-002
          34 -9.968634903017611E-002
          35 -0.172783187716054     
          36 -0.199717250358292     
          37 -0.107408846963307     
Sym=    10a
Ene=  -0.561448511106773     
Spin= Alpha
Occup=     2.00000000
           1  0.150680764132704     
           2  1.657401285893413E-002
           3  1.497850493157588E-002
           4 -8.650995393815633E-002
           5  6.918473221854057E-002
           6 -6.294727666285910E-002
           7  6.981244897981065E-002
           8 -0.184762665730372     
           9 -0.175331139633045     
          10  0.323937563334217     
          11  2.050893757682894E-002
          12 -0.128343162366200     
          13 -5.702740231812211E-002
          14 -0.303151394793900     
          15 -0.296662249253663     
          16 -1.509121205508516E-002
          17 -4.413596124398644E-003
          18 -3.858537948617842E-002
          19 -0.205912012357695     
          20  2.408235132998039E-002
          21  0.116087705816627     
          22  0.140672743064149     
          23 -4.402231894412505E-002
          24 -3.457583965397398E-003
          25 -0.244449394520625     
          26  3.409905914661906E-002
          27  6.481307641241868E-002
          28  0.238174492113600     
          29 -1.027694679019162E-002
          30  4.676917190685131E-002
          31  0.110320994982755     
          32  4.791627817906457E-002
          33 -0.242849642858138     
          34 -0.106252154498356     
          35  8.832772488913748E-002
          36  2.303230628340854E-002
          37  0.114182361239670     
Sym=    11a
Ene=  -0.537315041696482     
Spin= Alpha
Occup=     2.00000000
           1  3.965320619509315E-003
           2 -8.245054404278848E-002
           3  0.278221881315401     
           4  0.290338354208071     
           5 -1.076196738556692E-002
           6 -2.686339901373805E-002
           7  0.256839667468796     
           8  0.236295369163691     
           9 -1.918143844866528E-002
          10 -2.326110778420837E-002
          11  0.144161217206573     
          12  0.101230211988752     
          13 -9.635272236675539E-002
          14 -2.267565452072175E-002
          15 -9.529550978874510E-002
          16 -0.116445541306981     
          17 -2.582872799029909E-003
          18 -0.156291965142778     
          19 -4.887524729365773E-002
          20  5.915988206794795E-002
          21  5.767519565015394E-002
          22  0.120051537238964     
          23  5.950592825115225E-002
          24  5.404312173509436E-002
          25 -3.417709413363442E-002
          26 -0.134710239902660     
          27  2.022002015836365E-003
          28  0.115273317209796     
          29  0.241349174754713     
          30 -0.215582046474514     
          31 -0.182456014991325     
          32  0.188516220227117     
          33  9.693127513932125E-002
          34 -0.124248456817819     
          35  9.028114365302783E-002
          36  6.536372138800378E-002
          37  3.513937974305158E-002
Sym=    12a
Ene=  -0.524553857718928     
Spin= Alpha
Occup=     2.00000000
           1  4.085480232079666E-002
           2  0.223005633343277     
           3  0.212214730724111     
           4 -0.148271966283299     
           5  3.071850593226625E-003
           6 -0.318329885620833     
           7  8.634432818252813E-002
           8 -0.137862757176981     
           9 -3.422081520471658E-002
          10  8.179405155558943E-002
          11 -0.203589148907204     
          12  0.261538619958772     
          13  1.500535000862976E-002
          14  2.336297432490613E-002
          15 -0.121384646781643     
          16  0.139461440024293     
          17 -7.039151590890582E-003
          18 -0.119555729300124     
          19  0.141839577753240     
          20 -0.193001426747735     
          21  1.543098650447856E-002
          22  1.620708559923736E-002
          23  0.164579724748299     
          24 -0.142832503486407     
          25 -6.230393825416394E-002
          26 -0.108974928532461     
          27  0.288810424085783     
          28 -0.130446535971269     
          29 -0.115812086686290     
          30 -0.136317513140596     
          31  1.259609734236984E-002
          32  2.043138088881610E-002
          33  0.126418874648216     
          34  9.841472266388793E-002
          35 -0.101418857977832     
          36  0.146887091237602     
          37  3.295033688490861E-002
Sym=    13a
Ene=  -0.506529366314668     
Spin= Alpha
Occup=     2.00000000
           1 -5.685680279510926E-002
           2  0.147985211601707     
           3 -0.166541928331671     
           4 -0.140710606575726     
           5 -3.010148263151768E-003
           6 -4.018387924441671E-002
           7 -0.155094458399875     
           8  8.683604922625877E-002
           9 -3.302138908039849E-002
          10 -0.203694827249072     
          11  0.178382556520298     
          12  0.105010164375539     
          13  8.073763546679988E-002
          14  9.717250225067227E-002
          15  0.271133642387274     
          16  8.899057025601578E-002
          17 -3.152452290808014E-002
          18 -0.219988441848306     
          19 -0.187922938611837     
          20 -5.040673084000414E-002
          21  7.917551297428035E-003
          22  0.260739119902744     
          23  5.291544805707391E-002
          24  8.618413607707996E-002
          25 -0.184392853908602     
          26 -0.122847760030072     
          27  0.199361697389282     
          28  0.373446295173478     
          29 -0.178287375691983     
          30  9.592676234321937E-002
          31 -5.645080453226378E-002
          32 -0.114826665754081     
          33  0.143190872022646     
          34 -0.138415291105468     
          35  0.149584986002504     
          36  4.519936279894729E-002
          37  6.877361810804394E-002
Sym=    14a
Ene=  -0.496487475435379     
Spin= Alpha
Occup=     2.00000000
           1 -2.496346925705322E-003
           2  0.329077458893035     
           3  0.224789230643172     
           4  6.963553155461433E-002
           5 -2.137422910498450E-002
           6 -0.244334675991031     
           7 -0.249774044668237     
           8  0.208022797512476     
           9  1.340533855707363E-002
          10 -6.057104304823363E-003
          11 -3.669306382227201E-002
          12 -0.222517811199131     
          13  9.385841313178826E-002
          14 -8.297099578768463E-002
          15  7.009226499339492E-002
          16 -0.140880557311445     
          17 -3.969246257915200E-002
          18  4.383419945075185E-002
          19 -1.609293402480893E-002
          20  3.863462141503583E-003
          21 -2.878263784060128E-004
          22  8.155778707921141E-002
          23 -0.191799192773261     
          24 -9.585113722127055E-002
          25  1.380828743875982E-002
          26  0.114704713234860     
          27 -9.335093343465321E-002
          28 -3.804144360436803E-002
          29 -3.734193711250278E-002
          30 -0.229049126349489     
          31 -0.214424550825554     
          32 -0.225871974925927     
          33 -0.191525210926490     
          34  4.386682375973088E-002
          35 -2.447828023560597E-002
          36 -0.146200118699470     
          37  0.161672476780349     
Sym=    15a
Ene=  -0.486993116895453     
Spin= Alpha
Occup=     2.00000000
           1  7.174754559639651E-002
           2  0.161739368716819     
           3  2.867029829400545E-002
           4 -0.139750626597422     
           5 -3.907531154967295E-002
           6 -0.164920013608545     
           7 -3.817887316370944E-002
           8  4.914104332545819E-002
           9  3.590673675188100E-002
          10  0.126478738963131     
          11  0.124969004943680     
          12  5.801223050928768E-002
          13 -0.138412011148442     
          14 -0.239576020357595     
          15 -6.614478615276898E-002
          16 -0.164664356078141     
          17  7.187360310678943E-002
          18  7.645674525563328E-002
          19  8.423350455528500E-002
          20  1.150140142724199E-002
          21  1.685350349874070E-002
          22 -0.220039449070636     
          23  7.100004995243606E-002
          24  0.435494938912488     
          25  5.196610195993186E-002
          26 -6.416816959538661E-003
          27  7.090099633211831E-004
          28 -0.102904990740409     
          29 -0.125579760131333     
          30 -4.396589662372238E-003
          31 -0.105480257862432     
          32 -6.823114167123244E-002
          33  3.744992498866535E-002
          34 -0.120096025620503     
          35  0.269322549268063     
          36 -6.269108711995607E-004
          37 -0.385034012138697     
Sym=    16a
Ene=  -0.483914480539544     
Spin= Alpha
Occup=     2.00000000
           1 -1.634404961007764E-002
           2  9.116748094193231E-002
           3 -2.894145845238042E-002
           4  7.921284828631239E-003
           5  2.267437327513731E-002
           6 -1.115701779126959E-002
           7 -9.515644632717736E-002
           8  0.117730527471582     
           9  7.006279123000799E-003
          10  6.121040625116133E-003
          11  0.110710654487925     
          12 -9.299880971117905E-002
          13 -2.076181319254269E-002
          14 -4.816996785590038E-002
          15 -8.283017563188096E-002
          16  4.968111021217456E-002
          17  1.294510269894385E-002
          18  5.745771891702453E-002
          19 -0.108194342168820     
          20  9.798045112069380E-002
          21  3.188015290342710E-003
          22 -0.182575591982121     
          23  0.419045025146440     
          24 -0.200372355167560     
          25  3.044389820912122E-003
          26  0.107597120240049     
          27 -0.260727285368281     
          28  0.252753209242384     
          29 -3.956983142363581E-002
          30 -3.390062060600179E-003
          31 -8.539622104810912E-002
          32 -6.171460933538295E-002
          33 -7.321063471690623E-002
          34 -8.699151115690434E-002
          35 -0.288271321673825     
          36  0.402450720851109     
          37 -0.135299884149993     
Sym=    17a
Ene=  -0.478583967542414     
Spin= Alpha
Occup=     2.00000000
           1  3.343095559711312E-002
           2  6.614257264088741E-002
           3 -0.175245992801757     
           4 -0.230447279680726     
           5 -1.830669596868973E-002
           6 -6.625074626108007E-002