16
Energy = 0.00 kcal/mol
N    -2.992075 0.140494 -0.186780
C    -1.573468 0.527682 -0.307371
C    -0.706601 -0.245562 0.699539
O    0.680972 0.187631 0.640044
C    1.536179 -0.400073 -0.284018
C    2.938382 0.161013 -0.180512
O    1.232125 -1.266834 -1.103724
H    -3.336391 0.299634 0.767323
H    -3.111626 -0.864323 -0.362302
H    -1.221232 0.336892 -1.339896
H    -1.468290 1.617664 -0.145862
H    -1.081575 -0.067275 1.725260
H    -0.797052 -1.340276 0.543428
H    3.356953 -0.018811 0.824564
H    2.938487 1.248172 -0.369534
H    3.605210 -0.316028 -0.920160
